 Gaussian 09, Revision D.01,
 Gaussian 09:  ES64L-G09RevD.01 24-Apr-2013

 ----------------------------------------------------------------------
 #p opt freq nosymm def2svp empiricaldispersion=gd3 optcyc=500 pbe1pbe
 scfcyc=500
 ----------------------------------------------------------------------

 -----------------------------------------
 new helicene - ts frozen conformation 1-2
 -----------------------------------------
 Symbolic Z-matrix:
 Charge =  0 Multiplicity = 1

 SCF Done:  E(RPBE1PBE) =  -1333.46604824     A.U. after   17 cycles
 SCF Done:  E(RPBE1PBE) =  -1333.46606046     A.U. after   12 cycles
 SCF Done:  E(RPBE1PBE) =  -1333.46604909     A.U. after   12 cycles
 SCF Done:  E(RPBE1PBE) =  -1333.46608537     A.U. after   11 cycles
 SCF Done:  E(RPBE1PBE) =  -1333.46609628     A.U. after   11 cycles
 SCF Done:  E(RPBE1PBE) =  -1333.46610534     A.U. after   12 cycles
 SCF Done:  E(RPBE1PBE) =  -1333.46611144     A.U. after   10 cycles
 SCF Done:  E(RPBE1PBE) =  -1333.46611598     A.U. after   11 cycles
 SCF Done:  E(RPBE1PBE) =  -1333.46611909     A.U. after   11 cycles
 SCF Done:  E(RPBE1PBE) =  -1333.46612274     A.U. after   11 cycles
 SCF Done:  E(RPBE1PBE) =  -1333.47011263     A.U. after   13 cycles
 SCF Done:  E(RPBE1PBE) =  -1333.47021771     A.U. after   13 cycles
 SCF Done:  E(RPBE1PBE) =  -1333.47025673     A.U. after   11 cycles
 SCF Done:  E(RPBE1PBE) =  -1333.47026826     A.U. after    9 cycles
 SCF Done:  E(RPBE1PBE) =  -1333.47027689     A.U. after   11 cycles
 SCF Done:  E(RPBE1PBE) =  -1333.47027968     A.U. after   10 cycles
 SCF Done:  E(RPBE1PBE) =  -1333.47028177     A.U. after    9 cycles
 SCF Done:  E(RPBE1PBE) =  -1333.47028246     A.U. after    8 cycles
 SCF Done:  E(RPBE1PBE) =  -1333.47028255     A.U. after    7 cycles
 Optimization completed.
    -- Stationary point found.

 1\1\GINC-PLANA\FOpt\RPBE1PBE\def2SVP\C22H20N2O5\HUMBEL\21-Dec-2023\0\\
 #p opt freq nosymm def2svp empiricaldispersion=gd3 optcyc=500 pbe1pbe
 scfcyc=500\\new helicene - ts frozen conformation 1-2\\0,1\C,0.2945237
 767,-0.3738587438,-1.5562604965\C,0.9298135293,-0.2933836727,-0.243846
 8606\C,2.3130251227,0.1999204835,-0.2913147051\C,2.7144461012,0.923385
 9223,-1.4235813004\C,0.690541892,0.5154029386,-2.6573789319\H,3.006279
 7615,-0.6676586461,1.5570311744\C,3.2805064106,-0.0623483439,0.6927485
 953\C,4.0084537992,1.4290240684,-1.5457432109\C,4.9355850739,1.1866749

 Normal termination of Gaussian 09 at Thu Dec 21 19:08:11 2023.

 ---------------------------------------------------------------------
 #P Geom=AllCheck Guess=TCheck SCRF=Check GenChk RPBE1PBE/def2SVP Freq
 ---------------------------------------------------------------------

 Structure from the checkpoint file:  "/scratch/humbel.245603/Gau-62599.chk"
 -----------------------------------------
 new helicene - ts frozen conformation 1-2
 -----------------------------------------
 Charge =  0 Multiplicity = 1

                          Input orientation:
 ---------------------------------------------------------------------
 Center     Atomic      Atomic             Coordinates (Angstroms)
 Number     Number       Type             X           Y           Z
 ---------------------------------------------------------------------
      1          6           0        0.294524   -0.373859   -1.556260
      2          6           0        0.929814   -0.293384   -0.243847
      3          6           0        2.313025    0.199920   -0.291315
      4          6           0        2.714446    0.923386   -1.423581
      5          6           0        0.690542    0.515403   -2.657379
      6          1           0        3.006280   -0.667659    1.557031
      7          6           0        3.280506   -0.062348    0.692749
      8          6           0        4.008454    1.429024   -1.545743
      9          6           0        4.935585    1.186675   -0.540863
     10          6           0        4.574518    0.425862    0.574944
     11          1           0        4.259830    1.996461   -2.443270
     12          1           0        5.951267    1.577367   -0.636264
     13          1           0        5.308384    0.207022    1.353262
     14          8           0        1.866960    1.183179   -2.458012
     15          8           0        0.075742    0.729047   -3.659476
     16          7           0       -0.779155   -1.152021   -1.742655
     17          8           0       -1.141821   -1.916438   -0.661655
     18          8           0       -1.445021   -1.318401   -2.731429
     19          6           0        0.219288   -0.630686    0.865978
     20          6           0        0.579078   -0.367904    2.272636
     21          6           0        0.993616    0.913372    2.672725
     22          6           0        0.448048   -1.364409    3.251528
     23          6           0        1.281420    1.182976    4.006447
     24          1           0        1.092482    1.699145    1.920192
     25          6           0        0.741055   -1.094347    4.586768
     26          1           0        0.134977   -2.370841    2.961996
     27          6           0        1.158481    0.179479    4.968723
     28          1           0        1.600535    2.186372    4.298614
     29          1           0        0.644175   -1.886770    5.332816
     30          1           0        1.385317    0.392005    6.016168
     31          6           0       -1.160677   -1.182602    0.648543
     32          1           0       -1.361444   -2.043646    1.302810
     33          7           0       -2.179646   -0.255996    0.767511
     34          6           0       -3.520250   -0.614560    1.226816
     35          6           0       -2.052608    1.155099    0.418385
     36          6           0       -4.141194    0.750331    1.522169
     37          6           0       -3.486973    1.668910    0.491952
     38          1           0       -1.400258    1.679749    1.140896
     39          1           0       -3.870416    1.068368    2.541358
     40          1           0       -3.537273    2.733170    0.762051
     41          1           0       -1.621373    1.299284   -0.584736
     42          1           0       -3.978558    1.555034   -0.486917
     43          1           0       -5.239397    0.737788    1.458286
     44          1           0       -3.438056   -1.232871    2.139247
     45          6           0       -4.312089   -1.434108    0.204269
     46          1           0       -5.324761   -1.598459    0.610762
     47          1           0       -4.427938   -0.844660   -0.727366
     48          8           0       -3.749254   -2.688916   -0.033165
     49          1           0       -2.987138   -2.575124   -0.618308
 ---------------------------------------------------------------------

 SCF Done:  E(RPBE1PBE) =  -1333.47028255     A.U. after    1 cycles

 Alpha  occ. eigenvalues --  -19.28743 -19.27886 -19.24373 -19.20263 -19.19483
 Alpha  occ. eigenvalues --  -14.62010 -14.41601 -10.37963 -10.34857 -10.32069
 Alpha  occ. eigenvalues --  -10.30444 -10.28823 -10.27614 -10.27399 -10.27376
 Alpha  occ. eigenvalues --  -10.27322 -10.27246 -10.27149 -10.26089 -10.25920
 Alpha  occ. eigenvalues --  -10.25902 -10.25882 -10.25858 -10.25801 -10.25758
 Alpha  occ. eigenvalues --  -10.25404 -10.25219 -10.24706 -10.24657  -1.25280
 Alpha  occ. eigenvalues --   -1.15032  -1.09768  -1.06015  -1.03277  -0.98602
 Alpha  occ. eigenvalues --   -0.92210  -0.90157  -0.89495  -0.86425  -0.82449
 Alpha  occ. eigenvalues --   -0.80046  -0.78959  -0.78250  -0.78038  -0.76905
 Alpha  occ. eigenvalues --   -0.73205  -0.72890  -0.68509  -0.67275  -0.64974
 Alpha  occ. eigenvalues --   -0.64882  -0.63849  -0.62726  -0.62170  -0.60435
 Alpha  occ. eigenvalues --   -0.59079  -0.57683  -0.57204  -0.55242  -0.54743
 Alpha  occ. eigenvalues --   -0.53833  -0.53629  -0.51833  -0.50906  -0.50481
 Alpha  occ. eigenvalues --   -0.49871  -0.49292  -0.48429  -0.48062  -0.47533
 Alpha  occ. eigenvalues --   -0.46479  -0.46205  -0.45726  -0.45344  -0.45221
 Alpha  occ. eigenvalues --   -0.44313  -0.43755  -0.42642  -0.42427  -0.41670
 Alpha  occ. eigenvalues --   -0.41118  -0.40381  -0.40155  -0.39606  -0.38680
 Alpha  occ. eigenvalues --   -0.37835  -0.37554  -0.37254  -0.37082  -0.36896
 Alpha  occ. eigenvalues --   -0.35595  -0.35457  -0.34875  -0.33216  -0.32840
 Alpha  occ. eigenvalues --   -0.29640  -0.29331  -0.28881  -0.28635  -0.27601
 Alpha  occ. eigenvalues --   -0.26436  -0.24556  -0.23536
 Alpha virt. eigenvalues --   -0.09161  -0.04601  -0.02917  -0.02052  -0.01077
 Alpha virt. eigenvalues --    0.02210   0.05067   0.05814   0.06443   0.07071
 Alpha virt. eigenvalues --    0.07125   0.08348   0.08892   0.09669   0.10194

 Mulliken charges:
               1
     1  C   -0.135784
     2  C    0.134302
     3  C   -0.047520
     4  C    0.167057
     5  C    0.303373
     6  H    0.039902
     7  C   -0.011282
     8  C   -0.045406
     9  C    0.001927
    10  C   -0.021744
    11  H    0.030985
    12  H    0.032900
    13  H    0.026360
    14  O   -0.280364
    15  O   -0.160967
    16  N    0.235532
    17  O   -0.309293
    18  O   -0.220296
    19  C   -0.134117
    20  C   -0.077608
    21  C    0.014787
    22  C   -0.021083
    23  C   -0.025618
    24  H    0.034146
    25  C   -0.018830
    26  H    0.023154
    27  C   -0.010123
    28  H    0.028184
    29  H    0.028842
    30  H    0.029944
    31  C    0.296653
    32  H    0.053880
    33  N   -0.425667
    34  C   -0.024035
    35  C    0.148363
    36  C   -0.046115
    37  C   -0.087469
    38  H    0.042473
    39  H    0.049958
    40  H    0.050800
    41  H    0.062502
    42  H    0.056451
    43  H    0.048488
    44  H    0.038012
    45  C    0.245898
    46  H    0.025508
    47  H    0.015168
    48  O   -0.341813
    49  H    0.179586
 Sum of Mulliken charges =   0.00000

 Dipole moment (field-independent basis, Debye):
    X=              2.0905    Y=              2.3157    Z=              6.8932  Tot=              7.5663
 Quadrupole moment (field-independent basis, Debye-Ang):
   XX=           -154.4955   YY=           -170.4969   ZZ=           -173.9411
   XY=             -6.7028   XZ=             -3.4661   YZ=             -0.9955

  Exact polarizability: 297.365  44.219 198.870   6.853 -16.945 309.581
 Approx polarizability: 406.425  77.804 343.444  36.382 -33.145 501.176

                      1                      2                      3
                      A                      A                      A
 Frequencies --     28.9928                33.9856                40.0493
 Red. masses --      5.3524                 4.8359                 5.8207
 Frc consts  --      0.0027                 0.0033                 0.0055
 IR Inten    --      0.4288                 1.9800                 1.8818

                      4                      5                      6
                      A                      A                      A
 Frequencies --     47.8269                59.7651                61.6510
 Red. masses --      5.3066                 4.9000                 3.8974
 Frc consts  --      0.0072                 0.0103                 0.0087
 IR Inten    --      0.3832                 0.2792                 0.1721

                      7                      8                      9
                      A                      A                      A
 Frequencies --     74.2481                89.7990                98.1201
 Red. masses --      5.1564                 4.6238                 5.4812
 Frc consts  --      0.0167                 0.0220                 0.0311
 IR Inten    --      0.7913                 0.6777                 0.1511

                     10                     11                     12
                      A                      A                      A
 Frequencies --    136.1033               155.6301               163.5938
 Red. masses --      3.9296                 3.3351                 4.5641
 Frc consts  --      0.0429                 0.0476                 0.0720
 IR Inten    --      1.0648                 3.5936                 0.2514

                     13                     14                     15
                      A                      A                      A
 Frequencies --    172.2865               195.4708               214.7433
 Red. masses --      5.7632                 4.9982                 5.3751
 Frc consts  --      0.1008                 0.1125                 0.1460
 IR Inten    --      1.3822                 0.3323                 1.4594

                     16                     17                     18
                      A                      A                      A
 Frequencies --    226.1863               246.2349               260.1362
 Red. masses --      5.2245                 2.1816                 6.7871
 Frc consts  --      0.1575                 0.0779                 0.2706
 IR Inten    --      0.0056                 0.1982                 0.9883

                     19                     20                     21
                      A                      A                      A
 Frequencies --    288.9639               299.3907               322.7329
 Red. masses --      5.0747                 6.2670                 5.5578
 Frc consts  --      0.2497                 0.3310                 0.3411
 IR Inten    --      5.7700                 0.4486                 0.7322

                     22                     23                     24
                      A                      A                      A
 Frequencies --    333.1550               366.3348               397.6320
 Red. masses --      8.5801                 4.0167                 6.6290
 Frc consts  --      0.5611                 0.3176                 0.6175
 IR Inten    --      0.6083                 4.6948                 0.7287

                     25                     26                     27
                      A                      A                      A
 Frequencies --    422.1516               433.5269               457.1756
 Red. masses --      2.8869                 5.1901                 6.3693
 Frc consts  --      0.3031                 0.5747                 0.7843
 IR Inten    --      0.0584                 0.9579                10.4589

                     28                     29                     30
                      A                      A                      A
 Frequencies --    471.2796               484.0196               496.9167
 Red. masses --      6.6803                 3.7730                 8.6553
 Frc consts  --      0.8742                 0.5208                 1.2592
 IR Inten    --     18.0484                 7.3494                 1.7991

                     31                     32                     33
                      A                      A                      A
 Frequencies --    511.0356               521.0940               549.0418
 Red. masses --      3.8138                 3.8753                 2.7952
 Frc consts  --      0.5868                 0.6200                 0.4965
 IR Inten    --      6.7525                12.5091                28.0666

                     34                     35                     36
                      A                      A                      A
 Frequencies --    574.2074               587.3767               608.4927
 Red. masses --      1.7011                 3.6157                 2.3117
 Frc consts  --      0.3305                 0.7350                 0.5043
 IR Inten    --    111.1137                41.7316                 1.6631

                     37                     38                     39
                      A                      A                      A
 Frequencies --    618.2973               628.3126               639.7173
 Red. masses --      4.1863                 6.4781                 7.9508
 Frc consts  --      0.9429                 1.5068                 1.9171
 IR Inten    --     62.9617                 0.3926                 6.7516

                     40                     41                     42
                      A                      A                      A
 Frequencies --    659.0594               683.8037               699.1164
 Red. masses --      5.0219                 6.4299                 5.6000
 Frc consts  --      1.2852                 1.7714                 1.6126
 IR Inten    --     17.6205                 5.0222                 8.9366

                     43                     44                     45
                      A                      A                      A
 Frequencies --    710.2624               718.3809               724.8670
 Red. masses --      6.4985                 5.2412                 1.4593
 Frc consts  --      1.9315                 1.5936                 0.4518
 IR Inten    --      5.1285                72.3723                26.2025

                     46                     47                     48
                      A                      A                      A
 Frequencies --    763.2616               773.2736               780.4706
 Red. masses --      5.1479                 4.2193                 1.5890
 Frc consts  --      1.7670                 1.4865                 0.5703
 IR Inten    --     10.0819                62.1360                26.0894

                     49                     50                     51
                      A                      A                      A
 Frequencies --    787.9289               794.8647               805.6195
 Red. masses --      3.9468                 4.7677                 2.8067
 Frc consts  --      1.4437                 1.7748                 1.0733
 IR Inten    --     92.5860                 0.9025                60.1297

                     52                     53                     54
                      A                      A                      A
 Frequencies --    835.2529               864.7072               867.9367
 Red. masses --      4.1985                 3.4652                 1.2570
 Frc consts  --      1.7258                 1.5266                 0.5579
 IR Inten    --      3.8370                 4.6612                 0.1840

                     55                     56                     57
                      A                      A                      A
 Frequencies --    868.9031               888.2504               895.1118
 Red. masses --      1.8048                 2.0484                 1.5612
 Frc consts  --      0.8028                 0.9522                 0.7370
 IR Inten    --     11.2707                 0.5337                 1.8736

                     58                     59                     60
                      A                      A                      A
 Frequencies --    910.0706               947.7476               950.7720
 Red. masses --      6.0057                 2.0055                 1.7628
 Frc consts  --      2.9307                 1.0614                 0.9389
 IR Inten    --     45.7249                12.7644                 2.5643

                     61                     62                     63
                      A                      A                      A
 Frequencies --    956.5933               985.5639               987.3764
 Red. masses --      4.2248                 1.3751                 2.0281
 Frc consts  --      2.2778                 0.7870                 1.1649
 IR Inten    --     11.9657                 4.0765                11.5243

                     64                     65                     66
                      A                      A                      A
 Frequencies --   1004.4949              1006.9864              1014.5481
 Red. masses --      2.7435                 1.4249                 3.7528
 Frc consts  --      1.6310                 0.8513                 2.2759
 IR Inten    --     42.0056                 3.8064                 4.1910

                     67                     68                     69
                      A                      A                      A
 Frequencies --   1017.0408              1017.3085              1027.4362
 Red. masses --      1.8529                 1.3224                 2.1468
 Frc consts  --      1.1292                 0.8063                 1.3352
 IR Inten    --      4.6547                 0.1610                14.7937

                     70                     71                     72
                      A                      A                      A
 Frequencies --   1029.7536              1059.0274              1071.1223
 Red. masses --      1.4581                 2.5212                 1.7671
 Frc consts  --      0.9110                 1.6660                 1.1945
 IR Inten    --      2.6924                 0.6875                 3.4244

                     73                     74                     75
                      A                      A                      A
 Frequencies --   1074.6901              1087.8549              1111.8824
 Red. masses --      1.6692                 2.0091                 1.5638
 Frc consts  --      1.1359                 1.4009                 1.1390
 IR Inten    --      8.9972                14.9793                 4.1377

                     76                     77                     78
                      A                      A                      A
 Frequencies --   1134.1983              1142.8342              1157.3157
 Red. masses --      2.0055                 1.4860                 3.4885
 Frc consts  --      1.5200                 1.1435                 2.7529
 IR Inten    --     30.7980                16.1175                74.3830

                     79                     80                     81
                      A                      A                      A
 Frequencies --   1173.4925              1176.1006              1179.9853
 Red. masses --      1.1113                 1.0741                 1.5622
 Frc consts  --      0.9017                 0.8753                 1.2815
 IR Inten    --      2.4208                 0.0354                 7.6307

                     82                     83                     84
                      A                      A                      A
 Frequencies --   1197.7527              1202.8249              1216.0455
 Red. masses --      1.1490                 4.4775                 1.7208
 Frc consts  --      0.9712                 3.8168                 1.4992
 IR Inten    --      3.5272               114.1221                67.3144

                     85                     86                     87
                      A                      A                      A
 Frequencies --   1224.0350              1235.1787              1243.3858
 Red. masses --      1.8346                 1.2017                 2.6829
 Frc consts  --      1.6195                 1.0802                 2.4438
 IR Inten    --      6.3887                 9.8040                42.2477

                     88                     89                     90
                      A                      A                      A
 Frequencies --   1264.5698              1278.9972              1286.4858
 Red. masses --      1.2683                 1.6166                 1.9296
 Frc consts  --      1.1950                 1.5581                 1.8816
 IR Inten    --      8.5329                 8.9378                70.5731

                     91                     92                     93
                      A                      A                      A
 Frequencies --   1303.1136              1316.2709              1324.2567
 Red. masses --      3.3159                 1.6031                 1.4310
 Frc consts  --      3.3175                 1.6364                 1.4786
 IR Inten    --    199.2910                 4.9140                 0.6460

                     94                     95                     96
                      A                      A                      A
 Frequencies --   1329.5945              1341.5279              1343.0671
 Red. masses --      2.2485                 1.7211                 1.4897
 Frc consts  --      2.3420                 1.8250                 1.5833
 IR Inten    --     19.1918                 8.7763                33.1043

                     97                     98                     99
                      A                      A                      A
 Frequencies --   1351.4222              1378.9536              1383.6634
 Red. masses --      1.4504                 5.1251                 1.6522
 Frc consts  --      1.5607                 5.7418                 1.8637
 IR Inten    --      1.0554                77.9737                 6.8512

                    100                    101                    102
                      A                      A                      A
 Frequencies --   1391.5090              1407.9003              1412.2863
 Red. masses --      5.8858                 8.1036                 1.6506
 Frc consts  --      6.7147                 9.4639                 1.9397
 IR Inten    --     30.5179                 6.6338                19.9263

                    103                    104                    105
                      A                      A                      A
 Frequencies --   1418.8992              1427.3567              1434.3756
 Red. masses --      1.4609                 1.2173                 4.5990
 Frc consts  --      1.7329                 1.4613                 5.5750
 IR Inten    --      7.8032                42.0893               141.1931

                    106                    107                    108
                      A                      A                      A
 Frequencies --   1450.7578              1462.7722              1474.7170
 Red. masses --      5.2428                 1.1291                 1.1134
 Frc consts  --      6.5013                 1.4234                 1.4266
 IR Inten    --    136.4614                 4.7230                12.2828

                    109                    110                    111
                      A                      A                      A
 Frequencies --   1476.1538              1483.3984              1505.9902
 Red. masses --      1.1208                 2.5515                 1.1037
 Frc consts  --      1.4390                 3.3079                 1.4748
 IR Inten    --      4.6377                 7.1665                 1.5494

                    112                    113                    114
                      A                      A                      A
 Frequencies --   1512.5484              1531.0870              1543.5329
 Red. masses --      3.5706                 2.8485                 3.2240
 Frc consts  --      4.8129                 3.9342                 4.5256
 IR Inten    --     78.6418                53.2736                 7.2870

                    115                    116                    117
                      A                      A                      A
 Frequencies --   1654.2924              1662.7179              1685.7876
 Red. masses --      6.3238                 7.3543                 6.3989
 Frc consts  --     10.1965                11.9792                10.7142
 IR Inten    --      2.7171                10.5212                 3.8352

                    118                    119                    120
                      A                      A                      A
 Frequencies --   1696.3902              1703.7371              1723.5542
 Red. masses --      7.4497                10.6156                13.3294
 Frc consts  --     12.6310                18.1551                23.3298
 IR Inten    --     77.4989                41.3932               370.5637

                    121                    122                    123
                      A                      A                      A
 Frequencies --   1903.9242              3011.1214              3029.3390
 Red. masses --     13.1552                 1.0660                 1.0666
 Frc consts  --     28.0961                 5.6948                 5.7670
 IR Inten    --    506.8075                34.9683                29.4350

                    124                    125                    126
                      A                      A                      A
 Frequencies --   3049.1662              3082.1065              3085.4262
 Red. masses --      1.0857                 1.0655                 1.0695
 Frc consts  --      5.9471                 5.9635                 5.9990
 IR Inten    --     19.6724                13.3720                14.1035

                    127                    128                    129
                      A                      A                      A
 Frequencies --   3096.8096              3105.3104              3125.0390
 Red. masses --      1.1006                 1.0984                 1.0876
 Frc consts  --      6.2186                 6.2405                 6.2581
 IR Inten    --     51.1480                14.6589                 3.7361

                    130                    131                    132
                      A                      A                      A
 Frequencies --   3141.9258              3153.8291              3202.0928
 Red. masses --      1.1051                 1.1067                 1.0869
 Frc consts  --      6.4278                 6.4857                 6.5659
 IR Inten    --     15.2171                16.2647                 2.4209

                    133                    134                    135
                      A                      A                      A
 Frequencies --   3208.0048              3214.5850              3216.4537
 Red. masses --      1.0890                 1.0876                 1.0930
 Frc consts  --      6.6033                 6.6216                 6.6622
 IR Inten    --      0.0286                 0.7944                 4.3642

                    136                    137                    138
                      A                      A                      A
 Frequencies --   3223.7315              3228.4031              3231.6844
 Red. masses --      1.0971                 1.0933                 1.1011
 Frc consts  --      6.7175                 6.7140                 6.7752
 IR Inten    --      7.5433                 4.7802                 6.5235

                    139                    140                    141
                      A                      A                      A
 Frequencies --   3241.0396              3245.2781              3802.0376
 Red. masses --      1.0963                 1.0975                 1.0666
 Frc consts  --      6.7848                 6.8102                 9.0838
 IR Inten    --      0.5638                 2.0386               259.7992

 - Thermochemistry -
 -------------------
 Temperature   298.150 Kelvin.  Pressure   1.00000 Atm.
 Atom     1 has atomic number  6 and mass  12.00000

 Molecular mass:   392.13722 amu.
 Principal axes and moments of inertia in atomic units:
                           1         2         3
     Eigenvalues --  8076.30916********************
           X            0.96712   0.12019  -0.22412
           Y            0.22602  -0.00224   0.97412
           Z           -0.11658   0.99275   0.02934
 This molecule is an asymmetric top.
 Rotational symmetry number  1.
 Warning -- assumption of classical behavior for rotation
           may cause significant error
 Rotational temperatures (Kelvin)      0.01072     0.00785     0.00538
 Rotational constants (GHZ):           0.22346     0.16365     0.11217
 Zero-point vibrational energy    1032013.4 (Joules/Mol)
                                  246.65711 (Kcal/Mol)
 Warning -- explicit consideration of  37 degrees of freedom as
           vibrations may cause significant error
 Vibrational temperatures:     41.71    48.90    57.62    68.81    85.99
          (Kelvin)             88.70   106.83   129.20   141.17   195.82
                              223.92   235.37   247.88   281.24   308.97
                              325.43   354.28   374.28   415.75   430.76
                              464.34   479.34   527.07   572.10   607.38
                              623.75   657.77   678.07   696.40   714.95
                              735.27   749.74   789.95   826.16   845.10
                              875.48   889.59   904.00   920.41   948.24
                              983.84  1005.87  1021.91  1033.59  1042.92
                             1098.16  1112.57  1122.92  1133.65  1143.63
                             1159.11  1201.74  1244.12  1248.77  1250.16
                             1277.99  1287.86  1309.39  1363.60  1367.95
                             1376.32  1418.00  1420.61  1445.24  1448.83
                             1459.71  1463.29  1463.68  1478.25  1481.58
                             1523.70  1541.10  1546.24  1565.18  1599.75
                             1631.86  1644.28  1665.12  1688.39  1692.14
                             1697.73  1723.30  1730.59  1749.62  1761.11
                             1777.14  1788.95  1819.43  1840.19  1850.96
                             1874.89  1893.82  1905.31  1912.99  1930.16
                             1932.37  1944.39  1984.00  1990.78  2002.07
                             2025.65  2031.96  2041.48  2053.65  2063.74
                             2087.31  2104.60  2121.79  2123.85  2134.28
                             2166.78  2176.22  2202.89  2220.80  2380.15
                             2392.28  2425.47  2440.72  2451.29  2479.81
                             2739.32  4332.33  4358.54  4387.06  4434.46
                             4439.23  4455.61  4467.84  4496.23  4520.52
                             4537.65  4607.09  4615.60  4625.07  4627.75
                             4638.22  4644.95  4649.67  4663.13  4669.23
                             5470.28

 Zero-point correction=                           0.393073 (Hartree/Particle)
 Thermal correction to Energy=                    0.416351
 Thermal correction to Enthalpy=                  0.417295
 Thermal correction to Gibbs Free Energy=         0.339226
 Sum of electronic and zero-point Energies=          -1333.077209
 Sum of electronic and thermal Energies=             -1333.053932
 Sum of electronic and thermal Enthalpies=           -1333.052988
 Sum of electronic and thermal Free Energies=        -1333.131057

                     E (Thermal)             CV                S
                      KCal/Mol        Cal/Mol-Kelvin    Cal/Mol-Kelvin
 Total                  261.264             92.174            164.310
 Electronic               0.000              0.000              0.000
 Translational            0.889              2.981             43.791
 Rotational               0.889              2.981             35.615
 Vibrational            259.487             86.212             84.904
 Vibration     1          0.593              1.984              5.897
 Vibration     2          0.594              1.983              5.582
 Vibration     3          0.594              1.981              5.257
 Vibration     4          0.595              1.978              4.905
 Vibration     5          0.597              1.973              4.465
 Vibration     6          0.597              1.973              4.404
 Vibration     7          0.599              1.966              4.037
 Vibration     8          0.602              1.956              3.664
 Vibration     9          0.604              1.950              3.491
 Vibration    10          0.614              1.917              2.858
 Vibration    11          0.620              1.896              2.602
 Vibration    12          0.623              1.887              2.508
 Vibration    13          0.626              1.877              2.410
 Vibration    14          0.636              1.846              2.175
 Vibration    15          0.645              1.819              2.003
 Vibration    16          0.650              1.801              1.909
 Vibration    17          0.661              1.769              1.757
 Vibration    18          0.668              1.746              1.661
 Vibration    19          0.686              1.694              1.480
 Vibration    20          0.692              1.675              1.420
 Vibration    21          0.708              1.630              1.296
 Vibration    22          0.715              1.609              1.245
 Vibration    23          0.739              1.542              1.095
 Vibration    24          0.764              1.475              0.971
 Vibration    25          0.784              1.422              0.885
 Vibration    26          0.794              1.397              0.847
 Vibration    27          0.815              1.345              0.774
 Vibration    28          0.828              1.314              0.734
 Vibration    29          0.840              1.285              0.699
 Vibration    30          0.852              1.257              0.666
 Vibration    31          0.866              1.226              0.631
 Vibration    32          0.876              1.203              0.607
 Vibration    33          0.904              1.142              0.546
 Vibration    34          0.931              1.087              0.496
 Vibration    35          0.945              1.059              0.472
 Vibration    36          0.967              1.014              0.435
 Vibration    37          0.978              0.993              0.419

 1\1\GINC-PLANA\Freq\RPBE1PBE\def2SVP\C22H20N2O5\HUMBEL\21-Dec-2023\0\\
 #P Geom=AllCheck Guess=TCheck SCRF=Check GenChk RPBE1PBE/def2SVP Freq\
 \new helicene - ts frozen conformation 1-2\\0,1\C,0.2945237767,-0.3738
 587438,-1.5562604965\C,0.9298135293,-0.2933836727,-0.2438468606\C,2.31
 30251227,0.1999204835,-0.2913147051\C,2.7144461012,0.9233859223,-1.423
 5813004\C,0.690541892,0.5154029386,-2.6573789319\H,3.0062797615,-0.667
 6586461,1.5570311744\C,3.2805064106,-0.0623483439,0.6927485953\C,4.008
 4537992,1.4290240684,-1.5457432109\C,4.9355850739,1.1866749611,-0.5408

 Normal termination of Gaussian 09 at Thu Dec 21 20:32:33 2023.
